<VTKFile type="UnstructuredGrid" version="1.0" byte_order="LittleEndian" header_type="UInt64">
  <UnstructuredGrid>
    <Piece NumberOfPoints="1128" NumberOfCells="795">
      <PointData Scalars="Density" Vectors="Momentum">
        <DataArray type="Float32" Name="Momentum" NumberOfComponents="3" ComponentName0="LX Momentum" ComponentName1="LY Momentum_t" ComponentName2="LZ Momentum_t" format="ascii" RangeMin="1.9194017738453875" RangeMax="5.715960624685101">
          -3.2950000762939453 -0.18935999274253845 0.5683500170707703 -3.1647000312805176 -0.19664999842643738 0.518559992313385
          -2.9951000213623047 -0.18546000123023987 0.4505400061607361 -2.8492000102996826 -0.1725499927997589 0.37481001019477844
          -2.7044999599456787 -0.1454399973154068 0.31411999464035034 -2.602299928665161 -0.1289999932050705 0.2542000114917755
          -2.498800039291382 -0.09975399821996689 0.21761000156402588 -2.437999963760376 -0.09056100249290466 0.17844000458717346
          -2.3445000648498535 -0.06028100103139877 0.15262000262737274 -2.307499885559082 -0.06147800013422966 0.13018999993801117
          -2.235300064086914 -0.046431999653577805 0.11253000050783157 -2.2841999530792236 -0.1056400015950203 0.11704999953508377
          -2.370699882507324 -0.19165000319480896 0.09797000139951706 -2.4637999534606934 -0.34303998947143555 -0.014492000453174114
          -2.6068999767303467 -0.4764299988746643 -0.29357999563217163 -2.8366000652313232 -0.5346999764442444 -0.5536199808120728
          -2.6136999130249023 -0.2927300035953522 -0.5487800240516663 -2.476099967956543 -0.14565999805927277 -0.3843199908733368
          -2.8259999752044678 -0.03963400050997734 0.15087999403476715 -2.917099952697754 -0.055514998733997345 0.2014400064945221
          -3.006500005722046 -0.07900600135326385 0.2609800100326538 -3.0987000465393066 -0.10437999665737152 0.32304999232292175
          -3.1905999183654785 -0.13655999302864075 0.3937399983406067 -3.249300003051758 -0.16752000153064728 0.4515700042247772
          -3.276700019836426 -0.19200000166893005 0.488319993019104 -3.254499912261963 -0.21137000620365143 0.5000900030136108
          -3.203200101852417 -0.22175000607967377 0.49494999647140503 -3.1077001094818115 -0.22542999684810638 0.46406999230384827
          -3.011199951171875 -0.22036999464035034 0.4297899901866913 -2.8931000232696533 -0.21086999773979187 0.38315001130104065
          -2.7734999656677246 -0.19360999763011932 0.3307799994945526 -2.6291000843048096 -0.1700800061225891 0.2743400037288666
          -2.501300096511841 -0.14420999586582184 0.21184000372886658 -2.3763999938964844 -0.11371000111103058 0.181659996509552
          -2.2797999382019043 -0.10378000140190125 0.14248999953269958 -2.290800094604492 -0.12421000003814697 0.16444000601768494
          -2.2532999515533447 -0.17869000136852264 0.09613800048828125 -2.2660999298095703 -0.27584001421928406 -0.1335200071334839
          -2.623800039291382 -0.3884899914264679 -0.44703999161720276 -2.697999954223633 -0.29377999901771545 -0.47293001413345337
          -2.4177000522613525 0.003112599952146411 -0.043800000101327896 -2.428299903869629 0.004934200085699558 -0.03927500173449516
          -2.4540998935699463 0.0034473000559955835 -0.026002999395132065 -2.484299898147583 0.0009108799858950078 -0.008392199873924255
          -2.550299882888794 -0.006207199767231941 0.022758999839425087 -2.6233999729156494 -0.016023000702261925 0.05777300149202347
          -2.7237000465393066 -0.03415299952030182 0.10768000036478043 -2.8252999782562256 -0.057050999253988266 0.16243000328540802
          -2.914599895477295 -0.08345299959182739 0.21476000547409058 -2.986599922180176 -0.1120000034570694 0.26076000928878784
          -3.0420000553131104 -0.13907000422477722 0.30421000719070435 -3.0843000411987305 -0.16637000441551208 0.33976998925209045
          -3.100100040435791 -0.18740999698638916 0.365119993686676 -3.1096999645233154 -0.2086700052022934 0.38537999987602234
          -3.0862998962402344 -0.22382999956607819 0.3942599892616272 -3.0483999252319336 -0.23929999768733978 0.3976700007915497
          -2.955399990081787 -0.2412099987268448 0.37470999360084534 -2.8213000297546387 -0.23697000741958618 0.33553001284599304
          -2.6451001167297363 -0.21382999420166016 0.2739099860191345 -2.500699996948242 -0.19574999809265137 0.2293500006198883
          -2.3682000637054443 -0.18694999814033508 0.20791000127792358 -2.2137999534606934 -0.17781999707221985 0.16569000482559204
          -2.0585999488830566 -0.1798200011253357 0.0005731299752369523 -2.375 -0.26846998929977417 -0.29934000968933105
          -2.50219988822937 0.0007622200064361095 0.0038592000491917133 -2.4969000816345215 0.0013492000289261341 0.00048632000107318163
          -2.4911999702453613 0.0013647000305354595 -0.003214299911633134 -2.4828999042510986 0.0015708999708294868 -0.007693099789321423
          -2.47160005569458 0.0007277900003828108 -0.010986000299453735 -2.463900089263916 0.000867400027345866 -0.016242999583482742
          -2.45770001411438 -0.00018916999397333711 -0.018118999898433685 -2.455899953842163 -0.0013970000436529517 -0.01909000054001808
          -2.4637999534606934 -0.004828500095754862 -0.012343999929726124 -2.4890999794006348 -0.01043699961155653 0.002577299950644374
          -2.533600091934204 -0.018806999549269676 0.02339800074696541 -2.5794999599456787 -0.029207000508904457 0.04839299991726875
          -2.6477999687194824 -0.042413000017404556 0.07707899808883667 -2.6902999877929688 -0.05716300010681152 0.10593000054359436
          -2.7711000442504883 -0.07369299978017807 0.1391099989414215 -2.7964000701904297 -0.09103000164031982 0.1667499989271164
          -2.888200044631958 -0.11247999966144562 0.20523999631404877 -2.892899990081787 -0.13533000648021698 0.23193000257015228
          -2.9870998859405518 -0.16283999383449554 0.2755799889564514 -2.9509999752044678 -0.1919800043106079 0.2953200042247772
          -2.983599901199341 -0.21803000569343567 0.31964999437332153 -2.8541998863220215 -0.23116999864578247 0.29655998945236206
          -2.7392001152038574 -0.2405800074338913 0.26684999465942383 -2.540299892425537 -0.24844999611377716 0.24039000272750854
          -2.3264999389648438 -0.223130002617836 0.18529999256134033 -2.064500093460083 -0.20566999912261963 0.08929000049829483
          -2.569700002670288 -0.0021047000773251057 0.003359300084412098 -2.566800117492676 -0.0027809999883174896 0.004180499818176031
          -2.5631000995635986 -0.003154299920424819 0.0050987000577151775 -2.559299945831299 -0.003306400030851364 0.005724899936467409
          -2.5539000034332275 -0.003122299909591675 0.0062386998906731606 -2.5506999492645264 -0.00279300007969141 0.006277100183069706
          -2.5439999103546143 -0.0025933999568223953 0.0061425999738276005 -2.5362000465393066 -0.002151200082153082 0.005092599894851446
          -2.5276999473571777 -0.0016636999789625406 0.003871399909257889 -2.539799928665161 -0.0010528999846428633 -0.0031775999814271927
          -2.5394999980926514 -0.0012151000555604696 -0.0029861999209970236 -2.539799928665161 -0.0011837000492960215 -0.0027689000125974417
          -2.5406999588012695 -0.001532200025394559 -0.0024202000349760056 -2.5399999618530273 -0.00184599997010082 -0.0022348000202327967
          -2.5404000282287598 -0.0021557998843491077 -0.0015927000204101205 -2.5859999656677246 -0.0013194000348448753 -0.003329100087285042
          -2.5850000381469727 -0.0014535000082105398 -0.0032995999790728092 -2.584199905395508 -0.0017047999426722527 -0.0032077000942081213
          -2.582200050354004 -0.001775900018401444 -0.003171799937263131 -2.5810999870300293 -0.00200439989566803 -0.0030133998952805996
          -2.59689998626709 3.180285256233165e-16 0 -2.59689998626709 3.180285256233165e-16 0
          -2.59689998626709 3.180285256233165e-16 0 -2.59689998626709 3.180285256233165e-16 0
          -3.65339994430542 -0.1448100060224533 0.5205900073051453 -3.7367000579833984 -0.17399999499320984 0.5762400031089783
          -3.7537999153137207 -0.19132000207901 0.6148300170898438 -3.745500087738037 -0.20527000725269318 0.6132100224494934
          -3.670099973678589 -0.2026599943637848 0.6047899723052979 -3.5910000801086426 -0.19979000091552734 0.5591300129890442
          -3.458699941635132 -0.17895999550819397 0.5202000141143799 -3.3564000129699707 -0.16857999563217163 0.4559899866580963
          -3.1851999759674072 -0.13162000477313995 0.39515000581741333 -3.07069993019104 -0.12189000099897385 0.3163999915122986
          -2.90339994430542 -0.08341600000858307 0.24275000393390656 -2.867000102996826 -0.12915000319480896 0.16358999907970428
          -2.9756999015808105 -0.23054000735282898 0.08726099878549576 -3.2678000926971436 -0.4788599908351898 -0.028710000216960907
          -3.578700065612793 -0.7074199914932251 -0.31189998984336853 -3.5627999305725098 -0.6870700120925903 -0.5391499996185303
          -3.0524001121520996 -0.3565700054168701 -0.5097699761390686 -2.3847999572753906 -0.10567999631166458 -0.4171299934387207
          -2.740000009536743 -0.005142100155353546 -0.006275500170886517 -2.8080999851226807 -0.010335000231862068 0.02375599928200245
          -2.9128000736236572 -0.02416899986565113 0.0737219974398613 -3.022700071334839 -0.0408330000936985 0.1266700029373169
          -3.171099901199341 -0.06600800156593323 0.20544999837875366 -3.3197999000549316 -0.09607800096273422 0.28723999857902527
          -3.4482998847961426 -0.12492000311613083 0.367249995470047 -3.561300039291382 -0.15547999739646912 0.43643999099731445
          -3.637399911880493 -0.18051999807357788 0.49522000551223755 -3.6967999935150146 -0.20374000072479248 0.5380600094795227
          -3.714400053024292 -0.21744999289512634 0.5589399933815002 -3.7165000438690186 -0.2286899983882904 0.5792999863624573
          -3.6661999225616455 -0.23262999951839447 0.5608400106430054 -3.5789999961853027 -0.22232000529766083 0.544730007648468
          -3.4179999828338623 -0.2103700041770935 0.46035999059677124 -3.1760001182556152 -0.15700000524520874 0.37582001090049744
          -2.9897000789642334 -0.14472000300884247 0.2521899938583374 -2.8304998874664307 -0.11802999675273895 0.17476999759674072
          -2.987799882888794 -0.2578499913215637 0.10621999949216843 -3.185499906539917 -0.42640000581741333 -0.1227400004863739
          -3.3503000736236572 -0.5267999768257141 -0.4499100148677826 -3.01990008354187 -0.30720001459121704 -0.4839400053024292
          -2.7460999488830566 0.0044879000633955 -0.01969500072300434 -2.7260000705718994 0.005978699773550034 -0.02635199949145317
          -2.727299928665161 0.006808199919760227 -0.027871999889612198 -2.709700107574463 0.006688800174742937 -0.0333079993724823
          -2.7156999111175537 0.005220599938184023 -0.030451999977231026 -2.7328999042510986 0.0040686000138521194 -0.02268199995160103
          -2.77620005607605 -0.00252439989708364 0.0009882500162348151 -2.851599931716919 -0.013565000146627426 0.0375560000538826
          -2.950700044631958 -0.02944999933242798 0.08606699854135513 -3.0439999103546143 -0.05067000165581703 0.13649000227451324
          -3.1493000984191895 -0.07352899760007858 0.1912900060415268 -3.234299898147583 -0.09937699884176254 0.2441900074481964
          -3.3310000896453857 -0.12396000325679779 0.2971299886703491 -3.390899896621704 -0.14810000360012054 0.33972999453544617
          -3.485300064086914 -0.17613999545574188 0.39691999554634094 -3.518399953842163 -0.19923999905586243 0.4285300076007843
          -3.5938000679016113 -0.22894999384880066 0.48851001262664795 -3.551100015640259 -0.24040000140666962 0.4797399938106537
          -3.4763998985290527 -0.24345000088214874 0.48256000876426697 -3.2718000411987305 -0.22053000330924988 0.3747299909591675
          -2.946000099182129 -0.16760000586509705 0.2531200051307678 -2.912400007247925 -0.2078399956226349 0.2125300019979477
          -2.864000082015991 -0.27114999294281006 0.029753999784588814 -3.070199966430664 -0.3661400079727173 -0.3297800123691559
          -2.8471999168395996 -0.0035137999802827835 0.019957000389695168 -2.843899965286255 -0.0033082999289035797 0.018113000318408012
          -2.836199998855591 -0.0033011999912559986 0.016023000702261925 -2.827500104904175 -0.003011999884620309 0.012815999798476696
          -2.8118999004364014 -0.0028136998880654573 0.009699899703264236 -2.7959001064300537 -0.0017034000484272838 0.005615199916064739
          -2.77810001373291 -0.0003773199860006571 0.0005000599776394665 -2.7588000297546387 0.0005895299836993217 -0.004863999783992767
          -2.7411000728607178 0.0009219700004905462 -0.009589100256562233 -2.7334001064300537 0.0003182099899277091 -0.011109000071883202
          -2.736799955368042 -0.0026670999359339476 -0.006407800130546093 -2.750699996948242 -0.006681500002741814 0.0012935999548062682
          -2.789900064468384 -0.013841000385582447 0.01866699941456318 -2.823199987411499 -0.022321000695228577 0.03631199896335602
          -2.8861000537872314 -0.03354499861598015 0.06405899673700333 -2.9372000694274902 -0.04604899883270264 0.0902789980173111
          -3.015199899673462 -0.06292399764060974 0.1283400058746338 -3.094099998474121 -0.0838330015540123 0.1699099987745285
          -3.178100109100342 -0.10846000164747238 0.21743999421596527 -3.3055999279022217 -0.14539000391960144 0.2899799942970276
          -3.360300064086914 -0.17603999376296997 0.33041998744010925 -3.4546000957489014 -0.21278999745845795 0.4011699855327606
          -3.390399932861328 -0.23440000414848328 0.384880006313324 -3.11899995803833 -0.2199299931526184 0.3058199882507324
          -2.9479000568389893 -0.22798000276088715 0.25213000178337097 -2.7249999046325684 -0.24481000006198883 0.12393999844789505
          -2.863600015640259 -0.0011758999899029732 0.006310699973255396 -2.863800048828125 -0.0015935000265017152 0.0075019001960754395
          -2.861599922180176 -0.0021569000091403723 0.008867399767041206 -2.862299919128418 -0.0025019000750035048 0.01029799971729517
          -2.8608999252319336 -0.0028733001090586185 0.011397000402212143 -2.8610000610351562 -0.003024900099262595 0.012454000301659107
          -2.859299898147583 -0.0035604999866336584 0.013296999968588352 -2.8541998863220215 -0.003975700121372938 0.013535999692976475
          -2.8485000133514404 -0.004130700137466192 0.013434999622404575 -2.8640999794006348 -0.0017186000477522612 0.0017058999510481954
          -2.862499952316284 -0.0019212999613955617 0.001792500028386712 -2.8612000942230225 -0.0019940000493079424 0.0018280999502167106
          -2.8594000339508057 -0.0021599000319838524 0.0019523999653756618 -2.857300043106079 -0.0024425999727100134 0.0021315000485628843
          -2.8538999557495117 -0.0027063998859375715 0.0024075000546872616 -2.9275999069213867 -0.0020125999581068754 0.004574299789965153
          -2.9260001182556152 -0.0021963000763207674 0.004560899920761585 -2.924499988555908 -0.0024949999060481787 0.004575800150632858
          -2.922300100326538 -0.0026742001064121723 0.004596199840307236 -2.920300006866455 -0.0029974000062793493 0.0045901997946202755
          -2.950000047683716 3.612708016602898e-16 0 -2.950000047683716 3.612708016602898e-16 0
          -2.950000047683716 3.612708016602898e-16 0 -2.950000047683716 3.612708016602898e-16 0
          -3.339099884033203 -0.05454099923372269 0.21462999284267426 -3.4825000762939453 -0.08364000171422958 0.28819000720977783
          -3.5947999954223633 -0.10670000314712524 0.36713001132011414 -3.7191998958587646 -0.13521000742912292 0.4299600124359131
          -3.7862000465393066 -0.15088999271392822 0.49129000306129456 -3.885999917984009 -0.17535999417304993 0.5349500179290771
          -3.9014999866485596 -0.17935000360012054 0.5707499980926514 -3.973099946975708 -0.20295999944210052 0.5909799933433533
          -3.946500062942505 -0.19519999623298645 0.6083800196647644 -3.974100112915039 -0.2209399938583374 0.594980001449585
          -3.900899887084961 -0.2169400006532669 0.5636399984359741 -3.8931000232696533 -0.2866100072860718 0.4587700068950653
          -3.9995999336242676 -0.43057000637054443 0.27722999453544617 -4.241199970245361 -0.7023299932479858 0.03173099830746651
          -4.559299945831299 -0.9789699912071228 -0.2908099889755249 -4.193299770355225 -0.8231499791145325 -0.44589999318122864
          -3.458400011062622 -0.42480000853538513 -0.3970400094985962 -2.548799991607666 -0.1056400015950203 -0.34922000765800476
          -2.837899923324585 0.0011600999860092998 -0.02174299955368042 -2.829699993133545 0.0015492000384256244 -0.026993999257683754
          -2.852400064468384 -0.0013072999427095056 -0.020255999639630318 -2.8777999877929688 -0.0045646000653505325 -0.012097000144422054
          -2.941699981689453 -0.011323999613523483 0.016534000635147095 -3.047100067138672 -0.02414499968290329 0.05683299899101257
          -3.151599884033203 -0.04085100069642067 0.11321999877691269 -3.29010009765625 -0.06033400073647499 0.17326000332832336
          -3.396899938583374 -0.0855100005865097 0.24089999496936798 -3.532399892807007 -0.10542000085115433 0.30463001132011414
          -3.614500045776367 -0.13634000718593597 0.367000013589859 -3.731600046157837 -0.1456499993801117 0.41892001032829285
          -3.8069000244140625 -0.18880000710487366 0.48636001348495483 -3.8984999656677246 -0.18675999343395233 0.5283200144767761
          -3.97189998626709 -0.2425300031900406 0.5928300023078918 -3.9681999683380127 -0.2185399979352951 0.590910017490387
          -3.950700044631958 -0.2728399932384491 0.5813800096511841 -3.7607998847961426 -0.24538999795913696 0.4246399998664856
          -3.8348000049591064 -0.40827998518943787 0.1899999976158142 -4.127999782562256 -0.6376000046730042 -0.1128000020980835
          -4.073699951171875 -0.6910600066184998 -0.3962100148200989 -3.408900022506714 -0.3690299987792969 -0.41589000821113586
          -2.9762001037597656 -0.002483000047504902 0.014926999807357788 -2.962599992752075 -0.002266800031065941 0.011276000179350376
          -2.9554998874664307 -0.00028996000764891505 0.007782499771565199 -2.9403998851776123 0.0012423000298440456 0.00300609995611012
          -2.9184999465942383 0.002065100008621812 -0.002823099959641695 -2.9049999713897705 0.0036613999400287867 -0.008362100459635258
          -2.890500068664551 0.004430700093507767 -0.010212000459432602 -2.887399911880493 0.0024387999437749386 -0.009550199843943119
          -2.9135000705718994 0.0008563799783587456 0.0025788000784814358 -2.949700117111206 -0.007358400151133537 0.019602999091148376
          -3.0095999240875244 -0.014828000217676163 0.047642000019550323 -3.074899911880493 -0.030508000403642654 0.07909400016069412
          -3.1563000679016113 -0.042789001017808914 0.1200300008058548 -3.2400999069213867 -0.06375599652528763 0.15835000574588776
          -3.3368000984191895 -0.08107300102710724 0.2121099978685379 -3.461899995803833 -0.11347000300884247 0.2710700035095215
          -3.5601999759674072 -0.13702000677585602 0.33695000410079956 -3.761199951171875 -0.19030000269412994 0.43693000078201294
          -3.789799928665161 -0.2066899985074997 0.4807400107383728 -3.9988999366760254 -0.26816999912261963 0.5754200220108032
          -3.7564001083374023 -0.24062000215053558 0.4866900146007538 -3.6449999809265137 -0.2888000011444092 0.2906799912452698
          -3.7736001014709473 -0.4165300130844116 0.0543770007789135 -3.852099895477295 -0.5176600217819214 -0.3123599886894226
          -2.9665000438690186 -0.0014167999615892768 0.022690000012516975 -2.969399929046631 -0.001657600048929453 0.023266000673174858
          -2.9695000648498535 -0.0019819000735878944 0.023639999330043793 -2.9730000495910645 -0.0021645999513566494 0.023698000237345695
          -2.9677999019622803 -0.0029279000591486692 0.023060999810695648 -2.966099977493286 -0.0035443000961095095 0.022526999935507774
          -2.962100028991699 -0.0032432000152766705 0.020532000809907913 -2.955699920654297 -0.0030513000674545765 0.017629999667406082
          -2.9423000812530518 -0.0027083000168204308 0.012497000396251678 -2.930299997329712 -0.0015449000056833029 0.006747699808329344
          -2.9163999557495117 -0.001105500035919249 0.002912099938839674 -2.908900022506714 -0.0010064999805763364 -0.000264920003246516
          -2.9098000526428223 -0.0012945999624207616 -0.0006964500062167645 -2.9126999378204346 -0.0040200999937951565 0.003717399900779128
          -2.9279000759124756 -0.005750699900090694 0.007348199840635061 -2.9511001110076904 -0.012443999759852886 0.02194800041615963
          -2.987600088119507 -0.016806000843644142 0.0331059992313385 -3.0411999225616455 -0.0318089984357357 0.06638699769973755
          -3.114799976348877 -0.04217499867081642 0.09111499786376953 -3.2214999198913574 -0.07330399751663208 0.1577499955892563
          -3.3866000175476074 -0.10124000161886215 0.22179999947547913 -3.4781999588012695 -0.14083999395370483 0.29458001255989075
          -3.789400100708008 -0.20875999331474304 0.43931999802589417 -3.7488999366760254 -0.23580999672412872 0.452890008687973
          -3.573699951171875 -0.25459998846054077 0.3332499861717224 -3.545099973678589 -0.3263300061225891 0.1674399971961975
          -2.9530999660491943 -0.0010229999898001552 0.004855399951338768 -2.954400062561035 -0.0011705999495461583 0.0059413001872599125
          -2.9558000564575195 -0.0016258000396192074 0.007379199843853712 -2.9581000804901123 -0.0019892998971045017 0.008529500104486942
          -2.9607999324798584 -0.0024671999271959066 0.010710000060498714 -2.9635000228881836 -0.0028003999032080173 0.011957000009715557
          -2.9677999019622803 -0.0030420999974012375 0.014312000013887882 -2.969399929046631 -0.0035900999791920185 0.015879999846220016
          -2.9728000164031982 -0.0042501999996602535 0.01807500049471855 -2.952199935913086 -0.0008962299907580018 0.00761700002476573
          -2.95169997215271 -0.001066399971023202 0.007395599968731403 -2.950700044631958 -0.001040700008161366 0.0071299998089671135
          -2.950500011444092 -0.001152500044554472 0.007004899904131889 -2.948499917984009 -0.0012411000207066536 0.006590699777007103
          -2.9486000537872314 -0.0013994999462738633 0.006844100076705217 -2.9700000286102295 -0.0011416999623179436 0.00706679979339242
          -2.9697000980377197 -0.001262499950826168 0.0071470001712441444 -2.9700000286102295 -0.0015637000324204564 0.007329899817705154
          -2.969399929046631 -0.0016555000329390168 0.007440300192683935 -2.9700000286102295 -0.0019986999686807394 0.007694900035858154
          -2.950000047683716 3.612708016602898e-16 0 -2.950000047683716 3.612708016602898e-16 0
          -2.950000047683716 3.612708016602898e-16 0 -2.950000047683716 3.612708016602898e-16 0
          -3.013200044631958 -0.007920799776911736 0.02943499945104122 -3.0824999809265137 -0.013903000392019749 0.05522400140762329
          -3.15310001373291 -0.026333000510931015 0.08953999727964401 -3.249300003051758 -0.03593499958515167 0.12639999389648438
          -3.328399896621704 -0.054604001343250275 0.17186999320983887 -3.4286999702453613 -0.06623300164937973 0.21118000149726868
          -3.527899980545044 -0.08529999852180481 0.26504001021385193 -3.6026999950408936 -0.10778000205755234 0.29521000385284424
          -3.76419997215271 -0.1379700005054474 0.370059996843338 -3.9102001190185547 -0.20082999765872955 0.3983500003814697
          -4.172800064086914 -0.3444100022315979 0.4811500012874603 -4.619500160217285 -0.5772500038146973 0.4813399910926819
          -5.019599914550781 -0.9528800249099731 0.39322999119758606 -5.280700206756592 -1.2604999542236328 0.15987999737262726
          -5.335700035095215 -1.3913999795913696 -0.11462000012397766 -4.606400012969971 -0.9655500054359436 -0.22599999606609344
          -3.653899908065796 -0.46665000915527344 -0.20859000086784363 -2.8612000942230225 -0.14485999941825867 -0.22000999748706818
          -2.9993999004364014 0.003057599999010563 0.009381400421261787 -2.988800048828125 0.003468400100246072 0.004109799861907959
          -2.9748001098632812 0.0035377000458538532 -0.00012988000526092947 -2.966099977493286 0.0025311000645160675 -0.0037700000684708357
          -2.9532999992370605 0.0032301999162882566 -0.003602599957957864 -2.9637999534606934 0.001599899958819151 -0.003555899951606989
          -2.971100091934204 -0.0005691099795512855 0.009143900126218796 -3.0148000717163086 -0.0056282998993992805 0.01919100061058998
          -3.054500102996826 -0.012023000046610832 0.047442998737096786 -3.1263999938964844 -0.022484000772237778 0.06884600222110748
          -3.186000108718872 -0.03298800066113472 0.11283999681472778 -3.271899938583374 -0.04776100069284439 0.13300999999046326
          -3.3585000038146973 -0.0627169981598854 0.19847999513149261 -3.490299940109253 -0.08943899720907211 0.23486000299453735
          -3.611599922180176 -0.12223999947309494 0.3226799964904785 -3.868499994277954 -0.18472999334335327 0.40382999181747437
          -4.109300136566162 -0.30169999599456787 0.49452999234199524 -4.541800022125244 -0.5222799777984619 0.5152699947357178
          -4.815800189971924 -0.7946199774742126 0.3450700044631958 -5.037899971008301 -1.0202000141143799 -0.0014267000369727612
          -4.591899871826172 -0.8798499703407288 -0.23718999326229095 -3.7311999797821045 -0.45339998602867126 -0.2677899897098541
          -3.0020999908447266 -0.003737000050023198 0.016806000843644142 -3.001499891281128 -0.0045010000467300415 0.018098000437021255
          -2.9993999004364014 -0.004525099880993366 0.018247000873088837 -3.000200033187866 -0.00446730013936758 0.019392000511288643
          -2.994999885559082 -0.0040895999409258366 0.01830199919641018 -2.990999937057495 -0.004259100183844566 0.01627499982714653
          -2.9809999465942383 -0.00268759997561574 0.014057000167667866 -2.975399971008301 -0.0037450999952852726 0.010130999609827995
          -2.9635000228881836 -0.00039239999023266137 0.007879000157117844 -2.9697000980377197 -0.003498299978673458 0.006702600046992302
          -2.963099956512451 0.0006463599856942892 0.008186699822545052 -2.986799955368042 -0.0069796000607311726 0.014008999802172184
          -2.990299940109253 -0.002723800018429756 0.020589999854564667 -3.0411999225616455 -0.016597000882029533 0.036605000495910645
          -3.0564000606536865 -0.012241000309586525 0.04883300140500069 -3.156100034713745 -0.036952998489141464 0.0863720029592514
          -3.1989998817443848 -0.03757400065660477 0.11146000027656555 -3.3870999813079834 -0.08252699673175812 0.19312000274658203
          -3.52239990234375 -0.10441000014543533 0.25975000858306885 -3.7774999141693115 -0.18849000334739685 0.365090012550354
          -4.182499885559082 -0.31494998931884766 0.5252699851989746 -4.434599876403809 -0.5172500014305115 0.41762998700141907
          -4.6269001960754395 -0.6840900182723999 0.1285800039768219 -4.470900058746338 -0.7157599925994873 -0.2095700055360794
          -2.9851999282836914 -0.0003844499879051 0.010339999571442604 -2.9895999431610107 -0.0004211300110910088 0.011376000009477139
          -2.9946000576019287 -0.0005645399796776474 0.011977000162005424 -2.9992001056671143 -0.0009671300067566335 0.01308399997651577
          -3.003200054168701 -0.0011795000173151493 0.014179999940097332 -3.006999969482422 -0.001904499949887395 0.014801999554038048
          -3.0107998847961426 -0.00213670008815825 0.015829000622034073 -3.0153000354766846 -0.002491000108420849 0.016759999096393585
          -3.0137999057769775 -0.002642400097101927 0.016567999497056007 -3.0160999298095703 -0.0031562000513076782 0.01651100069284439
          -3.003700017929077 -0.0023735000286251307 0.014103000052273273 -3.0072999000549316 -0.00293929991312325 0.014178000390529633
          -2.989500045776367 -0.0018514000112190843 0.01023900043219328 -2.995500087738037 -0.002303200075402856 0.01131999958306551
          -2.9807000160217285 -0.001596100046299398 0.00816589966416359 -2.987600088119507 -0.002363800071179867 0.009963699616491795
          -2.984299898147583 -0.002824299968779087 0.010177000425755978 -2.9946999549865723 -0.004672300070524216 0.01550699956715107
          -3.017400026321411 -0.009404400363564491 0.024295000359416008 -3.047100067138672 -0.014999999664723873 0.04112600162625313
          -3.1442999839782715 -0.033594999462366104 0.07687000185251236 -3.2302000522613525 -0.05048400163650513 0.12251999974250793
          -3.4690001010894775 -0.10706000030040741 0.21616999804973602 -3.908099889755249 -0.2171200066804886 0.4351300001144409
          -4.120100021362305 -0.34994998574256897 0.4081200063228607 -4.293499946594238 -0.4793500006198883 0.2251099944114685
          -2.963399887084961 -0.0009310399764217436 0.0021329999435693026 -2.963200092315674 -0.0010594000341370702 0.0024441001005470753
          -2.9642999172210693 -0.0013266999740153551 0.0032995000947266817 -2.965100049972534 -0.0015370999462902546 0.0038199000991880894
          -2.966599941253662 -0.0018133999546989799 0.004808499943464994 -2.9697999954223633 -0.001991800032556057 0.005834000185132027
          -2.9719998836517334 -0.0024188999086618423 0.007122400216758251 -2.976599931716919 -0.0028411000967025757 0.008783199824392796
          -2.981100082397461 -0.0034024000633507967 0.010386999696493149 -2.9779000282287598 -0.0009472200181335211 0.005735199898481369
          -2.977799892425537 -0.00106969999615103 0.0055229999125003815 -2.977299928665161 -0.001151600037701428 0.00520200002938509
          -2.976799964904785 -0.0011288999812677503 0.005022299941629171 -2.976799964904785 -0.0012659999774768949 0.004895099904388189
          -2.9749999046325684 -0.0013609000016003847 0.004572900012135506 -2.968600034713745 -0.0012999000027775764 0.0034243001136928797